fchk produced by OCC
SP         HF                                                      6-31G
Number of atoms                            I                3
Charge                                     I                0
Multiplicity                               I                1
Number of electrons                        I               10
Number of alpha electrons                  I                5
Number of beta electrons                   I                5
Number of basis functions                  I               13
Number of independent functions            I               13
Number of point charges in /Mol/           I                0
Number of translation vectors              I                0
Atomic numbers                             I   N=           3
           8           1           1
Nuclear charges                            R   N=           3
  8.00000000e+00  1.00000000e+00  1.00000000e+00
Current cartesian coordinates              R   N=           9
 -1.32695831e+00 -1.05938613e-01  1.87882240e-02 -1.93166519e+00  1.60017435e+00
 -2.17104965e-02  4.86644350e-01  7.95980990e-02  9.86248064e-03
Force Field                                I                0
Int Atom Types                             I   N=           3
           0           0           0
MM Charges                                 R   N=           3
  0.00000000e+00  0.00000000e+00  0.00000000e+00
Integer atomic weights                     I   N=           3
          16           1           1
Real atomic weights                        R   N=           3
  1.59994001e+01  1.00794005e+00  1.00794005e+00
Atom residue num                           I   N=           3
           0           0           0
Number of contracted shells                I                9
Number of primitive shells                 I               22
Pure/Cartesian d shells                    I                1
Pure/Cartesian f shells                    I                1
Highest angular momentum                   I                1
Largest degree of contraction              I                6
Shell types                                I   N=           9
           0           0           1           0           1           0
           0           0           0
Number of primitives per shell             I   N=           9
           6           3           3           1           1           3
           1           3           1
Shell to atom map                          I   N=           9
           1           1           1           1           1           2
           2           3           3
Primitive exponents                        R   N=          22
  5.48467166e+03  8.25234946e+02  1.88046958e+02  5.29645000e+01  1.68975704e+01
  5.79963534e+00  1.55396162e+01  3.59993359e+00  1.01376175e+00  1.55396162e+01
  3.59993359e+00  1.01376175e+00  2.70005823e-01  2.70005823e-01  1.87311370e+01
  2.82539437e+00  6.40121692e-01  1.61277759e-01  1.87311370e+01  2.82539437e+00
  6.40121692e-01  1.61277759e-01
Contraction coefficients                   R   N=          22
  1.83107443e-03  1.39501722e-02  6.84450781e-02  2.32714336e-01  4.70192898e-01
  3.58520853e-01 -1.10777550e-01 -1.48026263e-01  1.13076702e+00  7.08742682e-02
  3.39752839e-01  7.27158577e-01  1.00000000e+00  1.00000000e+00  3.34946043e-02
  2.34726954e-01  8.13757326e-01  1.00000000e+00  3.34946043e-02  2.34726954e-01
  8.13757326e-01  1.00000000e+00
P(S=P) Contraction coefficients            R   N=          22
  0.00000000e+00  0.00000000e+00  0.00000000e+00  0.00000000e+00  0.00000000e+00
  0.00000000e+00  0.00000000e+00  0.00000000e+00  0.00000000e+00  0.00000000e+00
  0.00000000e+00  0.00000000e+00  0.00000000e+00  0.00000000e+00  0.00000000e+00
  0.00000000e+00  0.00000000e+00  0.00000000e+00  0.00000000e+00  0.00000000e+00
  0.00000000e+00  0.00000000e+00
Coordinates of each shell                  R   N=          27
 -1.32695831e+00 -1.05938613e-01  1.87882240e-02 -1.32695831e+00 -1.05938613e-01
  1.87882240e-02 -1.32695831e+00 -1.05938613e-01  1.87882240e-02 -1.32695831e+00
 -1.05938613e-01  1.87882240e-02 -1.32695831e+00 -1.05938613e-01  1.87882240e-02
 -1.93166519e+00  1.60017435e+00 -2.17104965e-02 -1.93166519e+00  1.60017435e+00
 -2.17104965e-02  4.86644350e-01  7.95980990e-02  9.86248064e-03  4.86644350e-01
  7.95980990e-02  9.86248064e-03
Virial ratio                               R      2.000058389893980E+00
SCF Energy                                 R     -7.598355029024600E+01
Alpha Orbital Energies                     R   N=          13
 -2.05618546e+01 -1.35511969e+00 -7.06370837e-01 -5.61652463e-01 -5.01574219e-01
  2.02567800e-01  2.98573567e-01  1.05126722e+00  1.16413457e+00  1.18474182e+00
  1.21796386e+00  1.37742184e+00  1.69877897e+00
Alpha MO coefficients                      R   N=         169
 -9.95787539e-01 -2.19410259e-02 -1.11608735e-03 -1.78176307e-03  4.64990459e-05
  8.03072301e-03  1.04111369e-03  1.66407438e-03 -4.34246823e-05 -1.26445438e-04
 -1.98884936e-03 -1.39696853e-04 -1.94952319e-03 -2.12429144e-01  4.69075062e-01
  5.82352345e-02  9.50382910e-02 -2.47711558e-03  4.80414592e-01  3.25816298e-02
  5.16699150e-02 -1.34895998e-03  1.40692488e-01 -8.31741296e-03  1.37969869e-01
 -7.95569462e-03 -9.16916197e-04  1.70622903e-03  4.25556541e-01 -2.72913369e-01
  5.68713248e-03  4.97412981e-03  2.28694850e-01 -1.45812434e-01  3.03533176e-03
 -2.63396195e-01 -1.25337370e-01  2.61282464e-01  1.25676898e-01 -7.62646401e-02
  1.81880692e-01 -2.95359376e-01 -4.62673853e-01  1.20878325e-02  3.07882441e-01
 -2.15851637e-01 -3.37758164e-01  8.82484714e-03 -1.43970010e-01 -8.04688637e-02
 -1.46313689e-01 -8.31039363e-02 -1.20530847e-17  1.61195673e-16  1.54423195e-03
  1.57831762e-02  6.41849259e-01 -2.76643168e-16  1.22553999e-03  1.25259121e-02
  5.09387167e-01  1.88710519e-16  2.91023702e-16 -1.10295217e-16 -5.00162066e-17
 -8.46293720e-02  1.03659039e-01  1.28468143e-01  1.94813125e-01 -5.09956885e-03
  1.17240977e+00  2.62330041e-01  4.00917980e-01 -1.04897800e-02 -5.66676055e-02
 -9.80750923e-01 -5.89507806e-02 -9.96526011e-01 -8.71489874e-04  6.93667003e-04
 -2.86125263e-01  1.82233784e-01 -3.79276615e-03  1.86505976e-02 -6.91076674e-01
  4.41933808e-01 -9.20455447e-03 -4.33891810e-02 -1.39238005e+00  4.47192302e-02
  1.36660394e+00  9.96173663e-04 -8.22179320e-03 -9.56458408e-02  4.43863972e-02
 -8.61353278e-04  1.78415213e-02 -6.14925531e-01  4.00277632e-01 -8.36343528e-03
 -9.53763272e-01  4.84528187e-01  9.90994930e-01 -5.22284699e-01 -2.02845761e-16
  2.10126580e-15 -2.31175438e-03 -2.36278149e-02 -9.60864617e-01 -2.66539139e-15
  2.49537820e-03  2.55045842e-02  1.03718658e+00 -7.71107609e-16  1.87453762e-15
 -3.22693314e-15  2.16184949e-15  4.78667184e-02 -2.40936751e-01 -3.87801840e-01
 -5.99918696e-01  1.56851135e-02  1.85159783e-01  1.90415340e-01  2.27919165e-01
 -6.06269110e-03  8.30733831e-01 -5.43799726e-01  7.83054291e-01 -5.46959765e-01
  7.29445324e-02 -4.70658837e-01  3.53531142e-01  5.74558991e-01 -1.49790620e-02
  8.93938070e-02 -6.05405609e-01 -9.94905853e-01  2.59214462e-02  5.80329451e-01
 -9.41926182e-02  5.76139068e-01 -1.15784004e-01  1.22734594e-03 -9.95321177e-03
  8.72464979e-01 -5.53363242e-01  1.15082181e-02  1.10484053e-02 -1.30124016e+00
  8.14396828e-01 -1.68954810e-02  1.07402858e-01 -9.12870350e-01 -7.71658925e-02
  8.93168901e-01  5.30643338e-02 -1.66758678e+00 -1.10140502e-01 -1.70349797e-01
  4.45391703e-03  2.75041401e+00  4.68201774e-01  7.45831921e-01 -1.94665781e-02
 -4.79401914e-01 -6.12880590e-01 -4.81651996e-01 -5.97331885e-01
Total SCF Density                          R   N=          91
  2.08507220e+00 -1.83338487e-01  5.07192639e-01  2.17516034e-02 -5.13057726e-02
  5.43461007e-01  3.42424965e-02 -7.99958142e-02  5.21518600e-02  5.95666723e-01
 -8.94360892e-04  2.09054700e-03 -6.06402802e-04  5.50019546e-03  8.24310137e-01
 -2.67072117e-01  5.62361321e-01 -1.21702197e-01 -1.96326378e-01  5.12050170e-03
  6.51358025e-01  1.65882752e-02 -4.72173045e-02  3.25949047e-01  8.11380334e-02
 -1.20521725e-03 -9.93166392e-02  1.99914824e-01  2.65188845e-02 -7.49598415e-02
  8.14702016e-02  4.02342776e-01  5.99962737e-03 -1.59757506e-01  8.25193465e-02
  2.76342582e-01 -6.92013529e-04  1.95687513e-03 -1.21338532e-03  6.00042654e-03
  6.54154102e-01  4.16740964e-03 -1.26083027e-03  5.77502537e-03  5.19128397e-01
 -3.70798774e-02  7.87266653e-02 -1.22747360e-01  3.03733803e-01 -7.17354372e-03
  4.39074076e-02 -4.91546642e-02  1.88605690e-01 -4.51958243e-03  2.19798623e-01
  1.99983702e-02 -3.74148809e-02 -6.01061020e-02  1.41300308e-01 -3.32998732e-03
 -5.88203460e-02 -2.31354812e-02  9.00433860e-02 -2.15851940e-03  8.68570868e-02
  4.45156584e-02 -3.65014519e-02  7.71109252e-02  3.24880890e-01  1.90014210e-02
 -1.24888237e-03  4.50677070e-02  1.91662282e-01  3.68981400e-02 -1.36845350e-03
 -5.66893632e-02 -4.42440700e-02  2.17423851e-01  1.97079778e-02 -3.71792225e-02
  1.55134054e-01  6.79698159e-03 -5.40377534e-04 -5.75975948e-02  9.28370817e-02
  1.86589287e-02 -6.82183768e-04 -4.45148042e-02 -1.79893688e-02  8.77980784e-02
  4.55360812e-02
